
     Program PWSCF v.7.0 starts on 29Nov2022 at 20:38:24 

     This program is part of the open-source Quantum ESPRESSO suite
     for quantum simulation of materials; please cite
         "P. Giannozzi et al., J. Phys.:Condens. Matter 21 395502 (2009);
         "P. Giannozzi et al., J. Phys.:Condens. Matter 29 465901 (2017);
         "P. Giannozzi et al., J. Chem. Phys. 152 154105 (2020);
          URL http://www.quantum-espresso.org", 
     in publications or presentations arising from this work. More details at
     http://www.quantum-espresso.org/quote

     Parallel version (MPI & OpenMP), running on      63 processor cores
     Number of MPI processes:                63
     Threads/MPI process:                     1

     MPI processes distributed on     1 nodes
     K-points division:     npool     =       9
     R & G space division:  proc/nbgrp/npool/nimage =       7
     67571 MiB available memory on the printing compute node when the environment starts

     Reading input from scf.in
     Message from routine read_cards :
     DEPRECATED: no units specified in CELL_PARAMETERS card

     Current dimensions of program PWSCF are:
     Max number of different atomic species (ntypx) = 10
     Max number of k-points (npk) =  40000
     Max angular momentum in pseudopotentials (lmaxx) =  4
     Message from routine setup:
     using ibrav=0 with symmetry is DISCOURAGED, use correct ibrav instead

     Subspace diagonalization in iterative solution of the eigenvalue problem:
     one sub-group per band group will be used
     scalapack distributed-memory algorithm (size of sub-group:  2*  2 procs)


     Parallelization info
     --------------------
     sticks:   dense  smooth     PW     G-vecs:    dense   smooth      PW
     Min         328     328     94                15027    15027    2311
     Max         329     329     95                15030    15030    2313
     Sum        2301    2301    659               105203   105203   16179

     Using Slab Decomposition



     bravais-lattice index     =            0
     lattice parameter (alat)  =       9.6670  a.u.
     unit-cell volume          =     734.1880 (a.u.)^3
     number of atoms/cell      =           10
     number of atomic types    =            2
     number of electrons       =        90.00
     number of Kohn-Sham states=           48
     kinetic-energy cutoff     =     104.0000  Ry
     charge density cutoff     =     416.0000  Ry
     scf convergence threshold =      1.0E-09
     mixing beta               =       0.7000
     number of iterations used =            8  plain     mixing
     Exchange-correlation= PBE
                           (   1   4   3   4   0   0   0)

     celldm(1)=   9.666979  celldm(2)=   0.000000  celldm(3)=   0.000000
     celldm(4)=   0.000000  celldm(5)=   0.000000  celldm(6)=   0.000000

     crystal axes: (cart. coord. in units of alat)
               a(1) = (   0.407945   0.913007   0.000000 )  
               a(2) = (  -0.407945   0.913007   0.000000 )  
               a(3) = (   0.000000   0.340027   1.091012 )  

     reciprocal axes: (cart. coord. in units 2 pi/alat)
               b(1) = (  1.225655  0.547641 -0.170679 )  
               b(2) = ( -1.225655  0.547641 -0.170679 )  
               b(3) = (  0.000000 -0.000000  0.916580 )  


     PseudoPot. # 1 for O  read from file:
     /flash/jtv1/xanes_bench/OCEAN_times/mp-1203-bands/Common/psp/O-high.UPF
     MD5 check sum: 36339a0223a6b3a524787ddb1ba8142c
     Pseudo is Norm-conserving + core correction, Zval =  6.0
     Generated using ONCVPSP code by D. R. Hamann
     Using radial grid of  936 points,  5 beta functions with: 
                l(1) =   0
                l(2) =   0
                l(3) =   1
                l(4) =   1
                l(5) =   2

     PseudoPot. # 2 for Ti read from file:
     /flash/jtv1/xanes_bench/OCEAN_times/mp-1203-bands/Common/psp/Ti-sp.UPF
     MD5 check sum: 3c4aa74137ba4d00a3ffd13e2d64885c
     Pseudo is Norm-conserving + core correction, Zval = 12.0
     Generated using ONCVPSP code by D. R. Hamann
     Using radial grid of 1586 points,  6 beta functions with: 
                l(1) =   0
                l(2) =   0
                l(3) =   1
                l(4) =   1
                l(5) =   2
                l(6) =   2

     atomic species   valence    mass     pseudopotential
        O              6.00    15.99940     O ( 1.00)
        Ti            12.00    47.86700     Ti( 1.00)

      4 Sym. Ops., with inversion, found



   Cartesian axes

     site n.     atom                  positions (alat units)
         1           Ti  tau(   1) = (   0.0000000   0.7506465   0.3551462  )
         2           Ti  tau(   2) = (   0.0000000   1.4153933   0.7358656  )
         3           Ti  tau(   3) = (   0.0000000   0.8975437   0.9029584  )
         4           Ti  tau(   4) = (   0.0000000   1.2684961   0.1880533  )
         5           Ti  tau(   5) = (   0.0000000   0.1700134   0.5455059  )
         6           O   tau(   6) = (   0.0000000   0.9130065   0.0000000  )
         7           O   tau(   7) = (   0.0000000   0.3710482   0.1839730  )
         8           O   tau(   8) = (   0.0000000   1.7949915   0.9070388  )
         9           O   tau(   9) = (   0.0000000   0.5355360   0.7163311  )
        10           O   tau(  10) = (   0.0000000   1.6305038   0.3746807  )

     number of k points=    54  Fermi-Dirac smearing, width (Ry)=  0.0200
                       cart. coord. in units 2pi/alat
        k(    1) = (   0.0000000   0.0912735   0.0632116), wk =   0.0222222
        k(    2) = (   0.0000000   0.0912735   0.2465276), wk =   0.0222222
        k(    3) = (   0.0000000   0.0912735  -0.4867367), wk =   0.0222222
        k(    4) = (   0.0000000   0.0912735  -0.3034206), wk =   0.0222222
        k(    5) = (   0.0000000   0.0912735  -0.1201045), wk =   0.0222222
        k(    6) = (  -0.2042759   0.1825471   0.0347651), wk =   0.0444444
        k(    7) = (  -0.2042759   0.1825471   0.2180812), wk =   0.0444444
        k(    8) = (  -0.2042759   0.1825471  -0.5151831), wk =   0.0444444
        k(    9) = (  -0.2042759   0.1825471  -0.3318671), wk =   0.0444444
        k(   10) = (  -0.2042759   0.1825471  -0.1485510), wk =   0.0444444
        k(   11) = (  -0.4085518   0.2738206   0.0063186), wk =   0.0444444
        k(   12) = (  -0.4085518   0.2738206   0.1896347), wk =   0.0444444
        k(   13) = (  -0.4085518   0.2738206  -0.5436296), wk =   0.0444444
        k(   14) = (  -0.4085518   0.2738206  -0.3603135), wk =   0.0444444
        k(   15) = (  -0.4085518   0.2738206  -0.1769975), wk =   0.0444444
        k(   16) = (   0.6128277  -0.1825471   0.1485510), wk =   0.0444444
        k(   17) = (   0.6128277  -0.1825471   0.3318671), wk =   0.0444444
        k(   18) = (   0.6128277  -0.1825471  -0.4013972), wk =   0.0444444
        k(   19) = (   0.6128277  -0.1825471  -0.2180812), wk =   0.0444444
        k(   20) = (   0.6128277  -0.1825471  -0.0347651), wk =   0.0444444
        k(   21) = (   0.4085518  -0.0912735   0.1201045), wk =   0.0444444
        k(   22) = (   0.4085518  -0.0912735   0.3034206), wk =   0.0444444
        k(   23) = (   0.4085518  -0.0912735  -0.4298437), wk =   0.0444444
        k(   24) = (   0.4085518  -0.0912735  -0.2465276), wk =   0.0444444
        k(   25) = (   0.4085518  -0.0912735  -0.0632116), wk =   0.0444444
        k(   26) = (   0.2042759   0.0000000   0.0916580), wk =   0.0444444
        k(   27) = (   0.2042759   0.0000000   0.2749741), wk =   0.0444444
        k(   28) = (   0.2042759   0.0000000  -0.4582902), wk =   0.0222222
        k(   29) = (   0.0000000   0.2738206   0.0063186), wk =   0.0222222
        k(   30) = (   0.0000000   0.2738206   0.1896347), wk =   0.0222222
        k(   31) = (   0.0000000   0.2738206  -0.5436296), wk =   0.0222222
        k(   32) = (   0.0000000   0.2738206  -0.3603135), wk =   0.0222222
        k(   33) = (   0.0000000   0.2738206  -0.1769975), wk =   0.0222222
        k(   34) = (  -0.2042759   0.3650941  -0.0221279), wk =   0.0444444
        k(   35) = (  -0.2042759   0.3650941   0.1611882), wk =   0.0444444
        k(   36) = (  -0.2042759   0.3650941  -0.5720761), wk =   0.0444444
        k(   37) = (  -0.2042759   0.3650941  -0.3887600), wk =   0.0444444
        k(   38) = (  -0.2042759   0.3650941  -0.2054439), wk =   0.0444444
        k(   39) = (   0.8171036  -0.0912735   0.1201045), wk =   0.0444444
        k(   40) = (   0.8171036  -0.0912735   0.3034206), wk =   0.0444444
        k(   41) = (   0.8171036  -0.0912735  -0.4298437), wk =   0.0444444
        k(   42) = (   0.8171036  -0.0912735  -0.2465276), wk =   0.0444444
        k(   43) = (   0.8171036  -0.0912735  -0.0632116), wk =   0.0444444
        k(   44) = (   0.6128277   0.0000000   0.0916580), wk =   0.0444444
        k(   45) = (   0.6128277   0.0000000   0.2749741), wk =   0.0444444
        k(   46) = (   0.6128277   0.0000000  -0.4582902), wk =   0.0222222
        k(   47) = (   0.0000000   0.4563677  -0.0505743), wk =   0.0222222
        k(   48) = (   0.0000000   0.4563677   0.1327417), wk =   0.0222222
        k(   49) = (   0.0000000   0.4563677  -0.6005226), wk =   0.0222222
        k(   50) = (   0.0000000   0.4563677  -0.4172065), wk =   0.0222222
        k(   51) = (   0.0000000   0.4563677  -0.2338904), wk =   0.0222222
        k(   52) = (   1.0213795   0.0000000   0.0916580), wk =   0.0444444
        k(   53) = (   1.0213795   0.0000000   0.2749741), wk =   0.0444444
        k(   54) = (   1.0213795   0.0000000  -0.4582902), wk =   0.0222222

     Dense  grid:   105203 G-vectors     FFT dimensions: (  64,  64,  72)

     Estimated max dynamical RAM per process >      32.87 MB

     Estimated total dynamical RAM >       1.82 GB

     Initial potential from superposition of free atoms

     starting charge      89.9920, renormalised to      90.0000
     Starting wfcs are   70 randomized atomic wfcs

     total cpu time spent up to now is        2.6 secs

     Self-consistent Calculation

     iteration #  1     ecut=   104.00 Ry     beta= 0.70
     Davidson diagonalization with overlap
     ethr =  1.00E-02,  avg # of iterations =  2.2

     total cpu time spent up to now is        3.8 secs

     total energy              =    -759.40375828 Ry
     estimated scf accuracy    <       2.00283366 Ry

     iteration #  2     ecut=   104.00 Ry     beta= 0.70
     Davidson diagonalization with overlap
     ethr =  1.00E-03,  avg # of iterations = 12.9

     total cpu time spent up to now is        6.5 secs

     total energy              =    -758.41795246 Ry
     estimated scf accuracy    <      11.36185483 Ry

     iteration #  3     ecut=   104.00 Ry     beta= 0.70
     Davidson diagonalization with overlap
     c_bands:  1 eigenvalues not converged
     ethr =  1.00E-03,  avg # of iterations = 16.6

     total cpu time spent up to now is        9.5 secs

     total energy              =    -760.15897475 Ry
     estimated scf accuracy    <       3.03146302 Ry

     iteration #  4     ecut=   104.00 Ry     beta= 0.70
     Davidson diagonalization with overlap
     ethr =  1.00E-03,  avg # of iterations =  9.3

     total cpu time spent up to now is       11.3 secs

     total energy              =    -760.41625794 Ry
     estimated scf accuracy    <       0.30985309 Ry

     iteration #  5     ecut=   104.00 Ry     beta= 0.70
     Davidson diagonalization with overlap
     c_bands:  2 eigenvalues not converged
     ethr =  1.72E-04,  avg # of iterations = 14.0

     total cpu time spent up to now is       13.7 secs

     total energy              =    -760.44104757 Ry
     estimated scf accuracy    <       0.24731114 Ry

     iteration #  6     ecut=   104.00 Ry     beta= 0.70
     Davidson diagonalization with overlap
     ethr =  1.37E-04,  avg # of iterations =  9.5

     total cpu time spent up to now is       15.6 secs

     total energy              =    -760.45577563 Ry
     estimated scf accuracy    <       0.03766958 Ry

     iteration #  7     ecut=   104.00 Ry     beta= 0.70
     Davidson diagonalization with overlap
     c_bands:  1 eigenvalues not converged
     ethr =  2.09E-05,  avg # of iterations =  8.6

     total cpu time spent up to now is       17.8 secs

     total energy              =    -760.46237606 Ry
     estimated scf accuracy    <       0.01238521 Ry

     iteration #  8     ecut=   104.00 Ry     beta= 0.70
     Davidson diagonalization with overlap
     ethr =  6.88E-06,  avg # of iterations = 10.9

     total cpu time spent up to now is       20.1 secs

     total energy              =    -760.46324370 Ry
     estimated scf accuracy    <       0.00631781 Ry

     iteration #  9     ecut=   104.00 Ry     beta= 0.70
     Davidson diagonalization with overlap
     ethr =  3.51E-06,  avg # of iterations = 10.8

     total cpu time spent up to now is       22.1 secs

     total energy              =    -760.46372882 Ry
     estimated scf accuracy    <       0.00184827 Ry

     iteration # 10     ecut=   104.00 Ry     beta= 0.70
     Davidson diagonalization with overlap
     c_bands:  1 eigenvalues not converged
     ethr =  1.03E-06,  avg # of iterations =  9.9

     total cpu time spent up to now is       24.1 secs

     total energy              =    -760.46375635 Ry
     estimated scf accuracy    <       0.00044351 Ry

     iteration # 11     ecut=   104.00 Ry     beta= 0.70
     Davidson diagonalization with overlap
     c_bands:  1 eigenvalues not converged
     ethr =  2.46E-07,  avg # of iterations = 13.5

     total cpu time spent up to now is       26.6 secs

     total energy              =    -760.46389108 Ry
     estimated scf accuracy    <       0.00012250 Ry

     iteration # 12     ecut=   104.00 Ry     beta= 0.70
     Davidson diagonalization with overlap
     c_bands:  1 eigenvalues not converged
     ethr =  6.81E-08,  avg # of iterations =  8.0

     total cpu time spent up to now is       28.4 secs

     total energy              =    -760.46387374 Ry
     estimated scf accuracy    <       0.00007760 Ry

     iteration # 13     ecut=   104.00 Ry     beta= 0.70
     Davidson diagonalization with overlap
     c_bands:  1 eigenvalues not converged
     ethr =  4.31E-08,  avg # of iterations = 10.9

     total cpu time spent up to now is       30.6 secs

     total energy              =    -760.46388823 Ry
     estimated scf accuracy    <       0.00002577 Ry

     iteration # 14     ecut=   104.00 Ry     beta= 0.70
     Davidson diagonalization with overlap
     c_bands:  1 eigenvalues not converged
     ethr =  1.43E-08,  avg # of iterations = 10.4

     total cpu time spent up to now is       32.6 secs

     total energy              =    -760.46388923 Ry
     estimated scf accuracy    <       0.00000271 Ry

     iteration # 15     ecut=   104.00 Ry     beta= 0.70
     Davidson diagonalization with overlap
     c_bands:  1 eigenvalues not converged
     c_bands:  1 eigenvalues not converged
     c_bands:  1 eigenvalues not converged
     ethr =  1.50E-09,  avg # of iterations = 16.9

     total cpu time spent up to now is       35.2 secs

     total energy              =    -760.46389005 Ry
     estimated scf accuracy    <       0.00000109 Ry

     iteration # 16     ecut=   104.00 Ry     beta= 0.70
     Davidson diagonalization with overlap
     c_bands:  1 eigenvalues not converged
     c_bands:  1 eigenvalues not converged
     ethr =  6.07E-10,  avg # of iterations = 10.9

     total cpu time spent up to now is       37.1 secs

     total energy              =    -760.46389005 Ry
     estimated scf accuracy    <       0.00000047 Ry

     iteration # 17     ecut=   104.00 Ry     beta= 0.70
     Davidson diagonalization with overlap
     c_bands:  1 eigenvalues not converged
     ethr =  2.59E-10,  avg # of iterations = 12.2

     total cpu time spent up to now is       39.3 secs

     total energy              =    -760.46389014 Ry
     estimated scf accuracy    <       0.00000012 Ry

     iteration # 18     ecut=   104.00 Ry     beta= 0.70
     Davidson diagonalization with overlap
     c_bands:  1 eigenvalues not converged
     c_bands:  1 eigenvalues not converged
     c_bands:  1 eigenvalues not converged
     ethr =  6.42E-11,  avg # of iterations = 12.0

     total cpu time spent up to now is       41.2 secs

     total energy              =    -760.46389015 Ry
     estimated scf accuracy    <       0.00000006 Ry

     iteration # 19     ecut=   104.00 Ry     beta= 0.70
     Davidson diagonalization with overlap
     c_bands:  1 eigenvalues not converged
     ethr =  3.15E-11,  avg # of iterations = 11.3

     total cpu time spent up to now is       43.5 secs

     total energy              =    -760.46389018 Ry
     estimated scf accuracy    <          5.3E-09 Ry

     iteration # 20     ecut=   104.00 Ry     beta= 0.70
     Davidson diagonalization with overlap
     c_bands:  1 eigenvalues not converged
     c_bands:  1 eigenvalues not converged
     c_bands:  1 eigenvalues not converged
     c_bands:  1 eigenvalues not converged
     c_bands:  1 eigenvalues not converged
     ethr =  2.96E-12,  avg # of iterations = 16.8

     total cpu time spent up to now is       46.0 secs

     total energy              =    -760.46389019 Ry
     estimated scf accuracy    <       0.00000002 Ry

     iteration # 21     ecut=   104.00 Ry     beta= 0.70
     Davidson diagonalization with overlap
     c_bands:  1 eigenvalues not converged
     c_bands:  1 eigenvalues not converged
     c_bands:  1 eigenvalues not converged
     ethr =  2.96E-12,  avg # of iterations = 13.4

     total cpu time spent up to now is       48.3 secs

     total energy              =    -760.46389022 Ry
     estimated scf accuracy    <          2.8E-09 Ry

     iteration # 22     ecut=   104.00 Ry     beta= 0.70
     Davidson diagonalization with overlap
     c_bands:  1 eigenvalues not converged
     c_bands:  1 eigenvalues not converged
     ethr =  1.53E-12,  avg # of iterations = 10.1

     total cpu time spent up to now is       50.2 secs

     total energy              =    -760.46389025 Ry
     estimated scf accuracy    <          1.2E-09 Ry

     iteration # 23     ecut=   104.00 Ry     beta= 0.70
     Davidson diagonalization with overlap
     c_bands:  1 eigenvalues not converged
     c_bands:  1 eigenvalues not converged
     ethr =  6.50E-13,  avg # of iterations = 12.8

     total cpu time spent up to now is       52.3 secs

     End of self-consistent calculation

          k = 0.0000 0.0913 0.0632 ( 13155 PWs)   bands (ev):

   -43.1879 -43.1333 -43.0458 -43.0422 -42.6556 -19.8500 -19.6955 -19.6776
   -19.5566 -19.5231 -19.5049 -19.4800 -19.4484 -19.3736 -19.3168 -19.2438
   -19.0604 -19.0270 -18.9861 -18.5565  -6.5460  -5.8608  -5.7481  -5.6603
    -5.1186   6.9829   7.2361   7.2865   7.4537   7.6301   7.7403   8.1415
     8.3736   8.8081   8.8247   8.9343   9.2805   9.6457   9.9383   9.9685
    11.6097  12.5226  13.5861  14.0521  14.1994  14.4849  14.9829  15.3134

          k = 0.0000 0.0913 0.2465 ( 13154 PWs)   bands (ev):

   -43.1802 -43.1387 -43.0517 -43.0389 -42.6555 -19.7943 -19.6758 -19.6646
   -19.5848 -19.5187 -19.4927 -19.4768 -19.4232 -19.4199 -19.3155 -19.2451
   -19.1072 -19.0525 -18.9817 -18.5567  -6.4239  -5.9446  -5.7504  -5.6587
    -5.1608   7.1970   7.3624   7.4874   7.5137   7.6572   7.7547   8.1232
     8.1527   8.6851   8.8290   9.1554   9.1727   9.3099   9.7084   9.7851
    11.8040  12.8193  13.5795  14.1790  14.2684  14.5533  15.0780  15.1178

          k = 0.0000 0.0913-0.4867 ( 13156 PWs)   bands (ev):

   -43.1702 -43.1481 -43.0547 -43.0368 -42.6554 -19.7211 -19.6972 -19.6624
   -19.5908 -19.5101 -19.4909 -19.4744 -19.4676 -19.3831 -19.3151 -19.2357
   -19.1672 -19.0671 -18.9757 -18.5573  -6.2722  -6.0403  -5.7630  -5.6574
    -5.2133   7.3727   7.4682   7.5560   7.6215   7.7992   7.9393   8.0949
     8.1215   8.3800   8.7840   8.7945   9.2648   9.3180   9.4800   9.5965
    11.9429  13.1753  13.7870  14.0479  14.1367  14.7085  14.8777  15.0699

          k = 0.0000 0.0913-0.3034 ( 13158 PWs)   bands (ev):

   -43.1763 -43.1435 -43.0535 -43.0362 -42.6554 -19.7874 -19.6756 -19.6610
   -19.5675 -19.5664 -19.4991 -19.4762 -19.4066 -19.3906 -19.3168 -19.2446
   -19.1327 -19.0556 -18.9733 -18.5574  -6.3880  -5.9106  -5.7687  -5.6762
    -5.2028   7.2093   7.3331   7.5059   7.5639   7.7843   7.9954   8.2665
     8.2695   8.3139   8.7751   8.8089   9.0745   9.4352   9.6206   9.7238
    11.9155  13.0613  13.8739  13.9199  14.0234  14.7780  14.8080  15.1111

          k = 0.0000 0.0913-0.1201 ( 13136 PWs)   bands (ev):

   -43.1863 -43.1354 -43.0488 -43.0388 -42.6556 -19.8467 -19.6910 -19.6829
   -19.5439 -19.5417 -19.5151 -19.4791 -19.4327 -19.3669 -19.3171 -19.2443
   -19.0753 -19.0305 -18.9771 -18.5569  -6.5286  -5.8306  -5.7514  -5.6843
    -5.1438   7.0136   7.1536   7.3592   7.4511   7.7650   7.8256   8.1442
     8.5525   8.6134   8.6622   8.8739   9.2012   9.6406   9.8964   9.9306
    11.7107  12.6590  13.7283  13.8972  14.1042  14.5547  14.9859  15.2346

          k =-0.2043 0.1825 0.0348 ( 13131 PWs)   bands (ev):

   -43.1811 -43.1345 -43.0478 -43.0437 -42.6571 -19.8574 -19.7163 -19.6970
   -19.6116 -19.5731 -19.4937 -19.4751 -19.3922 -19.3728 -19.2622 -19.2183
   -19.0768 -19.0281 -19.0122 -18.5556  -6.3783  -5.7842  -5.7103  -5.6009
    -5.1140   6.7262   6.8442   7.2571   7.3208   7.6790   7.8764   8.0354
     8.1446   8.6250   8.6548   8.8115   9.2270   9.3000   9.7797   9.8381
    11.9197  12.8553  13.4480  13.7869  14.2821  14.6181  15.0735  15.3270

          k =-0.2043 0.1825 0.2181 ( 13158 PWs)   bands (ev):

   -43.1755 -43.1368 -43.0523 -43.0428 -42.6571 -19.8042 -19.6988 -19.6758
   -19.6404 -19.5608 -19.4826 -19.4647 -19.4235 -19.3868 -19.2563 -19.2327
   -19.1025 -19.0557 -19.0120 -18.5539  -6.2813  -5.8680  -5.6862  -5.6000
    -5.1531   6.9652   7.0517   7.3054   7.3955   7.5421   7.8157   7.9947
     8.1200   8.5784   8.6716   8.8545   8.9465   9.1572   9.6434   9.9062
    11.9712  12.9931  13.4779  14.1380  14.2342  14.6458  15.0645  15.1105

          k =-0.2043 0.1825-0.5152 ( 13150 PWs)   bands (ev):

   -43.1665 -43.1445 -43.0568 -43.0397 -42.6570 -19.7326 -19.6999 -19.6833
   -19.6404 -19.5489 -19.5098 -19.4716 -19.4370 -19.3546 -19.2755 -19.2363
   -19.1473 -19.0686 -18.9986 -18.5524  -6.1379  -5.9367  -5.6874  -5.6127
    -5.2223   7.1468   7.2739   7.3909   7.5253   7.6125   7.8709   7.9798
     8.1560   8.1921   8.4630   8.6612   8.8173   9.2551   9.4845   9.8469
    12.1210  13.3365  13.6245  13.8750  14.3686  14.8204  14.9773  15.0396

          k =-0.2043 0.1825-0.3319 ( 13150 PWs)   bands (ev):

   -43.1690 -43.1443 -43.0565 -43.0375 -42.6570 -19.7944 -19.6979 -19.6536
   -19.6209 -19.5843 -19.5314 -19.4851 -19.3872 -19.3486 -19.2811 -19.2266
   -19.1414 -19.0582 -18.9884 -18.5530  -6.2185  -5.8073  -5.7020  -5.6497
    -5.2237   6.9054   7.2276   7.3451   7.5609   7.6939   7.9198   8.0159
     8.2494   8.3073   8.4252   8.6348   8.7715   9.3474   9.4431   9.8169
    12.1752  13.3173  13.5613  13.8658  14.2789  14.6878  14.9634  15.1439

          k =-0.2043 0.1825-0.1486 ( 13145 PWs)   bands (ev):

   -43.1784 -43.1378 -43.0523 -43.0386 -42.6571 -19.8523 -19.7131 -19.6941
   -19.6008 -19.5691 -19.5208 -19.4899 -19.3789 -19.3558 -19.2693 -19.2166
   -19.1020 -19.0364 -18.9891 -18.5551  -6.3471  -5.7277  -5.7081  -5.6569
    -5.1557   6.7238   6.8883   7.2802   7.3740   7.8568   7.8986   8.1239
     8.2074   8.4753   8.5130   8.7100   8.9350   9.4068   9.6551   9.8869
    12.0615  13.0218  13.5051  13.7544  14.1909  14.6518  15.1250  15.1541

          k =-0.4086 0.2738 0.0063 ( 13163 PWs)   bands (ev):

   -43.1678 -43.1404 -43.0522 -43.0428 -42.6598 -19.8823 -19.7544 -19.7217
   -19.6688 -19.5991 -19.5222 -19.4562 -19.3700 -19.3530 -19.1995 -19.1570
   -19.1194 -19.0538 -19.0187 -18.5482  -6.0325  -5.7091  -5.5776  -5.4540
    -5.1061   6.3504   6.3848   7.0127   7.0916   7.5496   7.6759   7.7337
     7.9253   8.2149   8.3467   8.5579   8.7889   9.1455   9.4820   9.9874
    12.5323  13.4241  13.5046  13.8974  14.3405  14.7387  15.1184  15.7213

          k =-0.4086 0.2738 0.1896 ( 13158 PWs)   bands (ev):

   -43.1644 -43.1396 -43.0514 -43.0480 -42.6598 -19.8341 -19.7472 -19.6958
   -19.6711 -19.6203 -19.5066 -19.4563 -19.3973 -19.3454 -19.2007 -19.1764
   -19.1203 -19.0591 -19.0559 -18.5454  -5.9702  -5.7057  -5.5825  -5.4557
    -5.1638   6.5524   6.6335   7.0301   7.1439   7.2893   7.6982   7.7559
     7.9524   8.0925   8.2298   8.6011   8.8135   8.9404   9.3535  10.0249
    12.4766  13.3880  13.6479  14.1628  14.3624  14.9046  15.0624  15.4786

          k =-0.4086 0.2738-0.5436 ( 13148 PWs)   bands (ev):

   -43.1581 -43.1435 -43.0565 -43.0455 -42.6598 -19.7808 -19.7287 -19.7019
   -19.6809 -19.6085 -19.5181 -19.4699 -19.4094 -19.3216 -19.2618 -19.1654
   -19.1184 -19.0877 -19.0418 -18.5421  -5.8712  -5.7115  -5.5718  -5.4799
    -5.2484   6.6982   6.9406   7.0582   7.2148   7.3140   7.4590   7.8492
     8.0435   8.0600   8.1247   8.2682   8.5281   8.9543   9.3606  10.0903
    12.5743  13.4343  13.7762  13.9938  14.6913  14.9565  15.1983  15.3236

          k =-0.4086 0.2738-0.3603 ( 13142 PWs)   bands (ev):

   -43.1579 -43.1465 -43.0578 -43.0413 -42.6598 -19.8288 -19.7102 -19.6984
   -19.6670 -19.6293 -19.5287 -19.4863 -19.3798 -19.3244 -19.2619 -19.1556
   -19.1233 -19.0780 -19.0181 -18.5427  -5.9088  -5.6458  -5.5976  -5.5101
    -5.2248   6.5302   6.8013   7.0268   7.1176   7.5769   7.6415   7.7649
     7.9613   8.0048   8.1913   8.2560   8.7348   9.0388   9.2827  10.0628
    12.6735  13.3634  13.7445  13.9249  14.4644  15.0768  15.3305  15.4144

          k =-0.4086 0.2738-0.1770 ( 13154 PWs)   bands (ev):

   -43.1649 -43.1435 -43.0553 -43.0396 -42.6598 -19.8791 -19.7358 -19.7222
   -19.6771 -19.5668 -19.5587 -19.4744 -19.3669 -19.3409 -19.2239 -19.1491
   -19.1219 -19.0581 -19.0033 -18.5466  -5.9979  -5.7046  -5.5505  -5.4914
    -5.1407   6.3570   6.4384   7.0352   7.0565   7.6456   7.7422   7.8242
     7.9768   8.0624   8.1945   8.5088   8.6888   9.1602   9.4576  10.0280
    12.6421  13.2821  13.7015  13.8755  14.2992  14.8060  15.2305  15.5999

          k = 0.6128-0.1825 0.1486 ( 13147 PWs)   bands (ev):

   -43.1600 -43.1463 -43.0538 -43.0414 -42.6609 -19.8918 -19.7651 -19.7484
   -19.6940 -19.5740 -19.5512 -19.4603 -19.3683 -19.3494 -19.1774 -19.1407
   -19.0980 -19.0881 -19.0137 -18.5438  -5.8589  -5.6936  -5.4715  -5.3809
    -5.1108   6.1948   6.2904   6.7499   6.8099   7.4341   7.5679   7.6977
     7.8614   8.0157   8.1594   8.3082   8.7631   9.1481   9.3392  10.1110
    12.9736  13.5488  13.5891  13.9966  14.3136  15.2356  15.3312  15.5137

          k = 0.6128-0.1825 0.3319 ( 13155 PWs)   bands (ev):

   -43.1555 -43.1466 -43.0538 -43.0457 -42.6609 -19.8455 -19.7546 -19.7208
   -19.6879 -19.6190 -19.5276 -19.4662 -19.3776 -19.3413 -19.2122 -19.1385
   -19.1080 -19.0958 -19.0372 -18.5397  -5.7848  -5.6431  -5.4882  -5.4100
    -5.1903   6.4408   6.5122   6.7644   6.8711   7.2713   7.4233   7.7375
     7.8485   7.9681   8.1844   8.3293   8.7723   8.9360   9.0562  10.1419
    12.9400  13.4630  13.7953  13.9635  14.6335  15.3333  15.4431  15.6519

          k = 0.6128-0.1825-0.4014 ( 13156 PWs)   bands (ev):

   -43.1499 -43.1495 -43.0516 -43.0506 -42.6609 -19.8003 -19.7460 -19.7059
   -19.7006 -19.6431 -19.5052 -19.4686 -19.4033 -19.3263 -19.2402 -19.1366
   -19.1149 -19.0846 -19.0638 -18.5374  -5.7466  -5.5601  -5.5278  -5.4208
    -5.2616   6.6455   6.7534   6.7905   6.9264   7.0926   7.2340   7.8251
     7.8574   8.0225   8.1303   8.3233   8.4477   8.7317   9.2039  10.1790
    12.9216  13.4517  13.8798  13.9530  14.9253  15.3481  15.5706  15.7004

          k = 0.6128-0.1825-0.2181 ( 13155 PWs)   bands (ev):

   -43.1555 -43.1466 -43.0537 -43.0458 -42.6609 -19.8437 -19.7460 -19.7161
   -19.6877 -19.6511 -19.5055 -19.4687 -19.3875 -19.3391 -19.2080 -19.1351
   -19.1127 -19.0811 -19.0500 -18.5397  -5.8101  -5.6055  -5.4975  -5.4041
    -5.1992   6.4827   6.5447   6.7406   6.8020   7.3554   7.3787   7.7480
     7.8415   7.9157   8.1131   8.4691   8.6721   8.7761   9.2955  10.1428
    12.9214  13.4145  13.8691  13.9897  14.5170  15.3411  15.5209  15.7404

          k = 0.6128-0.1825-0.0348 ( 13159 PWs)   bands (ev):

   -43.1600 -43.1463 -43.0537 -43.0414 -42.6609 -19.8912 -19.7642 -19.7385
   -19.7033 -19.5941 -19.5343 -19.4610 -19.3684 -19.3479 -19.1801 -19.1377
   -19.1008 -19.0800 -19.0188 -18.5438  -5.8759  -5.6637  -5.4848  -5.3792
    -5.1119   6.2298   6.3111   6.7211   6.7648   7.4416   7.5955   7.7013
     7.8379   7.9900   8.0442   8.3338   8.9413   9.1945   9.2897  10.0634
    12.9348  13.3926  13.8298  13.9834  14.2218  15.2457  15.3951  15.5453

          k = 0.4086-0.0913 0.1201 ( 13145 PWs)   bands (ev):

   -43.1718 -43.1402 -43.0507 -43.0410 -42.6592 -19.8714 -19.7499 -19.7437
   -19.6753 -19.5790 -19.5238 -19.4797 -19.3668 -19.3521 -19.2084 -19.1601
   -19.1111 -19.0427 -19.0080 -18.5509  -6.1502  -5.5921  -5.5403  -5.4691
    -5.1315   6.4715   6.5245   6.8849   6.9472   7.6600   7.7159   7.8485
     7.9204   7.9920   8.1009   8.3025   8.9797   9.4051   9.4812  10.0095
    12.4875  13.4260  13.7925  13.9792  14.2527  14.9092  15.2938  15.6418

          k = 0.4086-0.0913 0.3034 ( 13163 PWs)   bands (ev):

   -43.1643 -43.1443 -43.0536 -43.0417 -42.6592 -19.8193 -19.7311 -19.7074
   -19.6763 -19.6121 -19.5235 -19.4769 -19.3794 -19.3471 -19.2442 -19.1845
   -19.1096 -19.0651 -19.0095 -18.5454  -6.0270  -5.5968  -5.5635  -5.5031
    -5.1980   6.6169   6.8118   6.9643   7.0491   7.5690   7.7179   7.8037
     7.8814   8.0578   8.1866   8.2640   8.4904   9.1474   9.3028  10.1109
    12.5983  13.4769  13.8399  13.9789  14.5900  15.0661  15.4282  15.5761

          k = 0.4086-0.0913-0.4298 ( 13164 PWs)   bands (ev):

   -43.1595 -43.1469 -43.0535 -43.0440 -42.6592 -19.7658 -19.7131 -19.7083
   -19.6904 -19.6407 -19.4872 -19.4691 -19.4218 -19.3140 -19.2894 -19.1933
   -19.1076 -19.0749 -19.0178 -18.5430  -5.9292  -5.6955  -5.5590  -5.4806
    -5.2245   6.7770   6.8718   7.1691   7.2202   7.3210   7.5509   7.8502
     7.8648   8.0510   8.2005   8.2700   8.3930   8.9145   9.2759  10.1349
    12.5823  13.5460  13.8092  14.0164  14.9926  15.0486  15.3899  15.4372

          k = 0.4086-0.0913-0.2465 ( 13148 PWs)   bands (ev):

   -43.1669 -43.1414 -43.0503 -43.0451 -42.6592 -19.8195 -19.7338 -19.7203
   -19.6665 -19.6384 -19.4875 -19.4637 -19.3999 -19.3562 -19.2110 -19.1927
   -19.1108 -19.0595 -19.0242 -18.5468  -6.0555  -5.6479  -5.5311  -5.4772
    -5.1720   6.6685   6.7427   6.9046   7.0650   7.4667   7.7085   7.8165
     7.8683   7.9907   8.1511   8.4727   8.7071   8.8996   9.4862  10.1041
    12.4941  13.4207  13.8501  14.1153  14.4614  15.0408  15.2464  15.6996

          k = 0.4086-0.0913-0.0632 ( 13154 PWs)   bands (ev):

   -43.1729 -43.1390 -43.0484 -43.0435 -42.6592 -19.8722 -19.7554 -19.7429
   -19.6733 -19.6005 -19.4992 -19.4747 -19.3662 -19.3607 -19.1984 -19.1602
   -19.1109 -19.0315 -19.0249 -18.5518  -6.1645  -5.5945  -5.5572  -5.4497
    -5.1143   6.4998   6.5333   6.8180   6.9325   7.6486   7.6891   7.7588
     7.8927   7.9580   8.1417   8.4589   9.1408   9.3412   9.5523   9.9259
    12.4054  13.4053  13.7649  14.0851  14.1633  14.9736  15.2205  15.7138

          k = 0.2043 0.0000 0.0917 ( 13143 PWs)   bands (ev):

   -43.1841 -43.1354 -43.0466 -43.0414 -42.6566 -19.8556 -19.7158 -19.6987
   -19.6037 -19.5763 -19.4940 -19.4881 -19.4016 -19.3604 -19.2821 -19.2126
   -19.0782 -19.0304 -18.9870 -18.5566  -6.4443  -5.7623  -5.6611  -5.5973
    -5.1269   6.9309   6.9463   7.1760   7.2783   7.6169   7.7918   7.8768
     8.1914   8.5281   8.5717   8.7193   9.2474   9.5947   9.7062   9.9387
    11.8518  12.8327  13.8872  14.0287  14.0821  14.6748  15.1312  15.3303

          k = 0.2043 0.0000 0.2750 ( 13167 PWs)   bands (ev):

   -43.1756 -43.1416 -43.0518 -43.0389 -42.6565 -19.7991 -19.6939 -19.6734
   -19.6290 -19.5680 -19.5087 -19.4785 -19.4006 -19.3823 -19.2787 -19.2292
   -19.1155 -19.0551 -18.9840 -18.5542  -6.3113  -5.8277  -5.6841  -5.5964
    -5.1793   7.0759   7.1867   7.2792   7.3918   7.6536   7.9085   7.9425
     8.0706   8.4147   8.5741   8.6639   8.8524   9.2209   9.6031   9.9055
    12.0484  13.1502  13.8617  14.0320  14.2392  14.8395  15.0555  15.2244

          k = 0.2043 0.0000-0.4583 ( 13174 PWs)   bands (ev):

   -43.1674 -43.1484 -43.0537 -43.0384 -42.6564 -19.7351 -19.6975 -19.6706
   -19.6457 -19.5584 -19.4984 -19.4718 -19.4467 -19.3606 -19.2762 -19.2539
   -19.1378 -19.0675 -18.9829 -18.5528  -6.1762  -5.9339  -5.6950  -5.5859
    -5.2118   7.2305   7.2947   7.3762   7.5488   7.6296   7.9347   7.9594
     8.1546   8.2826   8.3720   8.5733   8.7589   9.1230   9.4521   9.8537
    12.1207  13.4400  13.7610  14.0047  14.5363  14.7467  15.0159  15.0856

          k = 0.0000 0.2738 0.0063 ( 13126 PWs)   bands (ev):

   -43.1804 -43.1333 -43.0520 -43.0428 -42.6566 -19.8425 -19.6991 -19.6821
   -19.5684 -19.5526 -19.4920 -19.4584 -19.4250 -19.3693 -19.2791 -19.2527
   -19.0792 -19.0316 -19.0146 -18.5571  -6.4047  -5.8881  -5.8050  -5.6919
    -5.1413   6.7845   7.0942   7.3554   7.4845   7.6362   8.1821   8.2856
     8.3613   8.9295   8.9849   9.0419   9.0662   9.2408   9.8356   9.8882
    11.8334  12.6784  13.0428  13.3556  14.2918  14.7424  14.9350  15.2466

          k = 0.0000 0.2738 0.1896 ( 13161 PWs)   bands (ev):

   -43.1763 -43.1334 -43.0555 -43.0435 -42.6565 -19.7942 -19.6750 -19.6576
   -19.6083 -19.5330 -19.4759 -19.4593 -19.4409 -19.4024 -19.2732 -19.2635
   -19.0878 -19.0534 -19.0302 -18.5566  -6.3325  -5.9726  -5.7868  -5.6731
    -5.1619   6.9685   7.2365   7.4684   7.5172   7.5581   8.0198   8.0484
     8.2824   8.8402   9.0202   9.1439   9.2571   9.2946   9.7233   9.7932
    11.7712  12.7460  13.0401  13.8522  14.1706  14.6446  14.7186  15.1102

          k = 0.0000 0.2738-0.5436 ( 13154 PWs)   bands (ev):

   -43.1680 -43.1403 -43.0605 -43.0401 -42.6564 -19.7122 -19.6899 -19.6697
   -19.6165 -19.5356 -19.4783 -19.4545 -19.4536 -19.3789 -19.2817 -19.2495
   -19.1687 -19.0626 -19.0085 -18.5571  -6.1950  -6.0413  -5.7740  -5.6947
    -5.2291   7.0889   7.3996   7.6149   7.6560   7.7910   7.9466   7.9767
     8.1298   8.4889   8.8466   9.0440   9.3267   9.3947   9.5685   9.6164
    11.9069  13.0580  13.3051  13.8918  13.9266  14.6210  14.7709  15.0998

          k = 0.0000 0.2738-0.3603 ( 13152 PWs)   bands (ev):

   -43.1676 -43.1437 -43.0603 -43.0372 -42.6564 -19.7682 -19.6954 -19.6358
   -19.6201 -19.5788 -19.4913 -19.4518 -19.3970 -19.3534 -19.2903 -19.2418
   -19.1867 -19.0537 -18.9916 -18.5579  -6.2470  -5.9188  -5.7850  -5.7416
    -5.2503   6.9284   7.5398   7.5416   7.5479   7.8257   8.0974   8.1741
     8.3051   8.4439   8.7187   9.0336   9.0709   9.2737   9.6007   9.6229
    12.0325  13.0873  13.3437  13.5852  14.1531  14.4100  14.9726  15.1010

          k = 0.0000 0.2738-0.1770 ( 13136 PWs)   bands (ev):

   -43.1764 -43.1381 -43.0560 -43.0379 -42.6566 -19.8319 -19.7074 -19.6793
   -19.5805 -19.5485 -19.5068 -19.4544 -19.4015 -19.3502 -19.2832 -19.2522
   -19.1284 -19.0346 -18.9884 -18.5579  -6.3618  -5.8276  -5.7887  -5.7685
    -5.1942   6.7774   7.2156   7.3950   7.4803   7.8509   8.1424   8.4929
     8.5169   8.6857   8.6875   8.7818   9.0244   9.2983   9.7272   9.8224
    11.9751  12.8507  13.1686  13.3686  14.2074  14.8167  14.8298  15.1704

          k =-0.2043 0.3651-0.0221 ( 13127 PWs)   bands (ev):

   -43.1713 -43.1368 -43.0559 -43.0423 -42.6582 -19.8463 -19.7186 -19.7021
   -19.6156 -19.5691 -19.4978 -19.4728 -19.3863 -19.3368 -19.2549 -19.2179
   -19.1169 -19.0425 -19.0148 -18.5536  -6.1877  -5.8585  -5.7454  -5.6283
    -5.1686   6.6651   6.8431   7.2289   7.4067   7.6254   7.9615   8.1573
     8.4297   8.5088   8.7491   8.8115   9.0356   9.1726   9.7012   9.7813
    12.1315  12.9456  13.0412  13.2899  14.3224  14.7171  15.1460  15.2585

          k =-0.2043 0.3651 0.1612 ( 13159 PWs)   bands (ev):

   -43.1692 -43.1343 -43.0573 -43.0458 -42.6581 -19.8006 -19.7070 -19.6661
   -19.6444 -19.5718 -19.4919 -19.4572 -19.4151 -19.3523 -19.2557 -19.2206
   -19.0878 -19.0838 -19.0458 -18.5527  -6.1448  -5.8894  -5.7619  -5.6014
    -5.1840   6.8544   6.9531   7.1797   7.4308   7.5508   7.8826   8.1226
     8.3626   8.5251   8.7329   8.8847   9.0919   9.1565   9.5460   9.8106
    11.9864  13.0234  13.1278  13.6650  14.1829  14.6249  14.8750  15.1387

          k =-0.2043 0.3651-0.5721 ( 13150 PWs)   bands (ev):

   -43.1635 -43.1374 -43.0621 -43.0437 -42.6581 -19.7229 -19.7106 -19.6871
   -19.6454 -19.5660 -19.4976 -19.4599 -19.4314 -19.3362 -19.2779 -19.2092
   -19.1496 -19.0721 -19.0406 -18.5517  -6.0359  -5.9396  -5.7508  -5.6155
    -5.2428   6.9151   7.2149   7.2357   7.5000   7.5908   7.8832   8.0926
     8.2642   8.2897   8.7386   8.8175   8.8964   9.1811   9.4924   9.8158
    12.0268  13.2129  13.3328  13.8308  14.0672  14.5321  14.7000  15.0766

          k =-0.2043 0.3651-0.3888 ( 13129 PWs)   bands (ev):

   -43.1616 -43.1426 -43.0625 -43.0398 -42.6581 -19.7781 -19.7057 -19.6671
   -19.6400 -19.5874 -19.5021 -19.4766 -19.3907 -19.3117 -19.2937 -19.2005
   -19.1765 -19.0592 -19.0133 -18.5520  -6.0630  -5.8406  -5.7755  -5.6522
    -5.2624   6.7692   7.1979   7.3628   7.6113   7.6528   7.7601   8.0732
     8.1435   8.5503   8.6749   8.7866   8.8496   9.1378   9.4942   9.7505
    12.1977  13.1631  13.2583  13.5972  14.1757  14.6878  14.9881  15.0803

          k =-0.2043 0.3651-0.2054 ( 13132 PWs)   bands (ev):

   -43.1674 -43.1412 -43.0591 -43.0387 -42.6582 -19.8367 -19.7184 -19.7051
   -19.5970 -19.5796 -19.5105 -19.4813 -19.3762 -19.3215 -19.2673 -19.2135
   -19.1476 -19.0412 -18.9979 -18.5531  -6.1442  -5.8337  -5.7349  -5.6677
    -5.2158   6.6413   6.9956   7.2920   7.3919   7.8103   7.8844   8.1006
     8.2432   8.5989   8.6404   8.8725   8.9288   9.1737   9.6046   9.7474
    12.2248  12.8925  13.0370  13.5755  14.2632  14.7637  15.1040  15.1873

          k = 0.8171-0.0913 0.1201 ( 13153 PWs)   bands (ev):

   -43.1592 -43.1453 -43.0569 -43.0413 -42.6604 -19.8635 -19.7565 -19.7378
   -19.6678 -19.5787 -19.5203 -19.4804 -19.3724 -19.3300 -19.2172 -19.1524
   -19.1219 -19.0641 -19.0185 -18.5444  -5.8549  -5.8091  -5.5753  -5.4655
    -5.1777   6.4206   6.4638   6.8680   7.1609   7.5923   7.6710   7.7453
     7.8920   8.0503   8.2585   8.5858   8.9779   9.1514   9.4213  10.0158
    12.6680  13.0411  13.6637  13.7028  14.2465  15.0101  15.1656  15.6730

          k = 0.8171-0.0913 0.3034 ( 13143 PWs)   bands (ev):

   -43.1587 -43.1410 -43.0570 -43.0463 -42.6604 -19.8165 -19.7525 -19.7208
   -19.6607 -19.6145 -19.5054 -19.4621 -19.3892 -19.3335 -19.2132 -19.1535
   -19.1289 -19.0859 -19.0532 -18.5431  -5.8246  -5.7665  -5.6181  -5.4524
    -5.2153   6.5040   6.6754   6.9180   7.1743   7.3515   7.5830   7.8737
     7.9586   8.1059   8.4317   8.6070   8.7875   8.9285   9.2111  10.0277
    12.5156  13.3197  13.5800  13.9646  14.2906  14.9317  15.1330  15.3701

          k = 0.8171-0.0913-0.4298 ( 13164 PWs)   bands (ev):

   -43.1560 -43.1407 -43.0587 -43.0476 -42.6604 -19.7591 -19.7531 -19.6994
   -19.6900 -19.6281 -19.4884 -19.4572 -19.4189 -19.3215 -19.2369 -19.1427
   -19.1268 -19.1042 -19.0701 -18.5415  -5.7769  -5.7185  -5.6559  -5.4557
    -5.2692   6.5994   6.9465   6.9917   7.0411   7.2982   7.4825   7.9017
     8.0482   8.1690   8.3706   8.5005   8.7023   8.7822   9.1668  10.0422
    12.4547  13.3729  13.7330  14.0494  14.5071  14.7034  15.0905  15.2915

          k = 0.8171-0.0913-0.2465 ( 13137 PWs)   bands (ev):

   -43.1543 -43.1455 -43.0597 -43.0434 -42.6604 -19.8088 -19.7330 -19.7238
   -19.6649 -19.6272 -19.4961 -19.4820 -19.3899 -19.3245 -19.2409 -19.1422
   -19.1290 -19.0850 -19.0445 -18.5418  -5.8102  -5.7159  -5.6267  -5.4731
    -5.2556   6.5149   6.7694   6.8945   7.2832   7.3820   7.4754   7.9109
     8.0120   8.0593   8.2184   8.5814   8.7811   8.8257   9.3331  10.0563
    12.5988  13.2531  13.6798  13.9005  14.2714  15.0597  15.2161  15.4254

          k = 0.8171-0.0913-0.0632 ( 13131 PWs)   bands (ev):

   -43.1561 -43.1485 -43.0582 -43.0400 -42.6604 -19.8599 -19.7591 -19.7197
   -19.6780 -19.5781 -19.5268 -19.4855 -19.3741 -19.3239 -19.2298 -19.1478
   -19.1227 -19.0622 -19.0147 -18.5436  -5.8550  -5.7727  -5.5857  -5.4720
    -5.1999   6.4375   6.5337   6.8264   7.1742   7.5768   7.6693   7.8054
     7.9287   7.9658   8.1187   8.5949   9.0757   9.1599   9.3969   9.9878
    12.6948  12.9683  13.6345  13.8972  14.1412  15.0807  15.3628  15.4407

          k = 0.6128 0.0000 0.0917 ( 13162 PWs)   bands (ev):

   -43.1601 -43.1463 -43.0536 -43.0415 -42.6609 -19.8700 -19.7864 -19.7489
   -19.7110 -19.5737 -19.5178 -19.4859 -19.3662 -19.3441 -19.1777 -19.1404
   -19.1011 -19.0707 -19.0264 -18.5439  -5.9342  -5.5672  -5.4871  -5.3723
    -5.1556   6.3523   6.4754   6.5504   6.6314   7.5036   7.6744   7.7127
     7.7442   7.8254   8.0126   8.2682   9.1011   9.2508   9.3484  10.0545
    12.9217  13.3418  13.7862  14.0192  14.2307  15.2397  15.4202  15.8126

          k = 0.6128 0.0000 0.2750 ( 13162 PWs)   bands (ev):

   -43.1555 -43.1466 -43.0537 -43.0458 -42.6609 -19.8179 -19.7611 -19.7542
   -19.6864 -19.6297 -19.4979 -19.4662 -19.3845 -19.3463 -19.2063 -19.1458
   -19.1057 -19.0838 -19.0461 -18.5399  -5.8361  -5.5709  -5.4796  -5.4116
    -5.2183   6.4729   6.6406   6.6630   6.7705   7.3008   7.4293   7.7352
     7.8404   7.9944   8.2196   8.3163   8.6392   8.8665   9.2213  10.1717
    12.9081  13.4423  13.7760  14.0484  14.5323  15.3348  15.4894  15.7558

          k = 0.6128 0.0000-0.4583 ( 13166 PWs)   bands (ev):

   -43.1499 -43.1495 -43.0515 -43.0507 -42.6609 -19.7612 -19.7581 -19.7458
   -19.6816 -19.6714 -19.4696 -19.4585 -19.4215 -19.3232 -19.2491 -19.1494
   -19.0999 -19.0895 -19.0604 -18.5376  -5.7497  -5.5458  -5.5230  -5.4477
    -5.2504   6.5796   6.7919   6.8152   6.8771   7.0659   7.2550   7.7685
     7.9174   7.9568   8.3136   8.4425   8.5814   8.6529   8.9532  10.1804
    12.8511  13.4720  13.9091  13.9690  14.8898  15.3371  15.5506  15.6977

          k = 0.0000 0.4564-0.0506 ( 13130 PWs)   bands (ev):

   -43.1689 -43.1373 -43.0600 -43.0415 -42.6576 -19.8179 -19.7210 -19.6968
   -19.5691 -19.5632 -19.4899 -19.4363 -19.4047 -19.3180 -19.2880 -19.2403
   -19.1602 -19.0351 -19.0090 -18.5581  -6.1929  -5.9547  -5.8395  -5.7223
    -5.2249   6.8470   7.1663   7.3044   7.5104   7.7095   8.0865   8.3213
     8.3785   8.8513   8.8882   9.1407   9.2435   9.2561   9.6729   9.7623
    12.0283  12.5428  12.7373  13.1810  14.2623  14.9037  15.0118  15.2163

          k = 0.0000 0.4564 0.1327 ( 13169 PWs)   bands (ev):

   -43.1679 -43.1330 -43.0619 -43.0451 -42.6575 -19.7782 -19.6956 -19.6352
   -19.6123 -19.5847 -19.4691 -19.4403 -19.4365 -19.3481 -19.2936 -19.2287
   -19.1314 -19.0629 -19.0404 -18.5572  -6.1700  -5.9678  -5.8810  -5.6863
    -5.2184   6.9137   7.1128   7.2992   7.5868   7.7661   8.0002   8.2014
     8.5127   8.7940   9.0256   9.2122   9.2208   9.2254   9.6574   9.7073
    11.8421  12.7479  12.9520  13.3185  13.9637  14.5340  14.7767  15.2236

          k = 0.0000 0.4564-0.6005 ( 13158 PWs)   bands (ev):

   -43.1645 -43.1333 -43.0653 -43.0450 -42.6574 -19.7232 -19.6722 -19.6420
   -19.6416 -19.5747 -19.4633 -19.4571 -19.4405 -19.3536 -19.2999 -19.2193
   -19.1569 -19.0685 -19.0491 -18.5570  -6.0749  -6.0377  -5.8810  -5.6833
    -5.2448   6.8870   7.1410   7.6539   7.6751   7.6798   7.8429   8.3005
     8.3565   8.6801   9.0288   9.1503   9.2243   9.4032   9.5679   9.5900
    11.7804  12.9983  13.0658  13.5774  13.7978  14.3786  14.3998  15.2796

          k = 0.0000 0.4564-0.4172 ( 13164 PWs)   bands (ev):

   -43.1631 -43.1384 -43.0651 -43.0415 -42.6575 -19.7517 -19.7047 -19.6695
   -19.5995 -19.5906 -19.4767 -19.4358 -19.4043 -19.3317 -19.2932 -19.2214
   -19.2045 -19.0515 -19.0224 -18.5578  -6.1046  -5.9472  -5.8983  -5.7144
    -5.2668   6.8469   7.2780   7.4610   7.5792   7.8853   8.0617   8.0831
     8.4086   8.7904   8.8932   9.1188   9.1210   9.3798   9.4706   9.6290
    11.9839  12.8485  13.1062  13.2626  13.8995  14.7105  14.9405  14.9463

          k = 0.0000 0.4564-0.2339 ( 13154 PWs)   bands (ev):

   -43.1660 -43.1406 -43.0619 -43.0394 -42.6576 -19.8069 -19.7245 -19.7073
   -19.5696 -19.5611 -19.4961 -19.4342 -19.3829 -19.3083 -19.2882 -19.2500
   -19.1867 -19.0343 -18.9997 -18.5585  -6.1578  -5.9413  -5.8476  -5.7368
    -5.2556   6.8093   7.2351   7.5091   7.5666   7.7000   7.8804   8.3108
     8.4195   8.7350   8.9870   9.1226   9.1652   9.3069   9.5571   9.7156
    12.0779  12.5872  12.6433  13.4028  14.3067  14.7613  14.9732  15.2365

          k = 1.0214 0.0000 0.0917 ( 13132 PWs)   bands (ev):

   -43.1626 -43.1419 -43.0611 -43.0404 -42.6587 -19.8248 -19.7261 -19.7202
   -19.6107 -19.5595 -19.4992 -19.4761 -19.3821 -19.3025 -19.2700 -19.2185
   -19.1546 -19.0419 -19.0092 -18.5525  -6.0185  -5.9194  -5.7680  -5.6430
    -5.2446   6.7742   6.9928   7.0737   7.5252   7.7155   7.8667   7.9302
     8.1988   8.6498   8.7088   8.9591   9.1403   9.1904   9.6087   9.7240
    12.2410  12.6775  12.8678  13.5130  14.2576  14.9242  15.1240  15.2405

          k = 1.0214 0.0000 0.2750 ( 13142 PWs)   bands (ev):

   -43.1620 -43.1372 -43.0630 -43.0440 -42.6586 -19.7794 -19.7089 -19.6770
   -19.6485 -19.5801 -19.4836 -19.4706 -19.4015 -19.3123 -19.2824 -19.1981
   -19.1544 -19.0658 -19.0402 -18.5519  -6.0004  -5.8812  -5.8343  -5.6197
    -5.2484   6.8170   7.0398   7.1026   7.4446   7.6795   7.9958   8.1245
     8.1921   8.7369   8.7850   8.8522   8.9459   9.0124   9.5378   9.7661
    12.0815  12.9953  13.2354  13.3613  14.0647  14.6960  14.8987  15.1532

          k = 1.0214 0.0000-0.4583 ( 13142 PWs)   bands (ev):

   -43.1615 -43.1343 -43.0641 -43.0464 -42.6586 -19.7314 -19.6954 -19.6905
   -19.6356 -19.6011 -19.4843 -19.4497 -19.4342 -19.3101 -19.2976 -19.1806
   -19.1470 -19.0932 -19.0569 -18.5515  -5.9467  -5.9213  -5.8549  -5.6025
    -5.2529   6.8122   7.0858   7.2110   7.4785   7.5418   7.8721   8.2990
     8.4229   8.4708   8.8149   8.8497   8.9744   9.0027   9.4389   9.7754
    11.9339  13.1493  13.2658  13.7734  13.9427  14.3876  14.5267  15.2689

     the Fermi energy is    14.5434 ev

!    total energy              =    -760.46389026 Ry
     estimated scf accuracy    <          7.0E-11 Ry
     smearing contrib. (-TS)   =      -0.08473721 Ry
     internal energy E=F+TS    =    -760.37915306 Ry

     The total energy is F=E-TS. E is the sum of the following terms:
     one-electron contribution =    -219.78583141 Ry
     hartree contribution      =     157.14331520 Ry
     xc contribution           =    -130.00955875 Ry
     ewald contribution        =    -567.72707810 Ry

     convergence has been achieved in  23 iterations

     Forces acting on atoms (cartesian axes, Ry/au):

     atom    1 type  2   force =     0.00000000   -0.00408760    0.00228731
     atom    2 type  2   force =     0.00000000    0.00408760   -0.00228731
     atom    3 type  2   force =     0.00000000   -0.00192019    0.00391256
     atom    4 type  2   force =     0.00000000    0.00192019   -0.00391256
     atom    5 type  2   force =     0.00000000    0.00000000    0.00000000
     atom    6 type  1   force =     0.00000000    0.00000000    0.00000000
     atom    7 type  1   force =     0.00000000    0.00131673    0.00366390
     atom    8 type  1   force =     0.00000000   -0.00131673   -0.00366390
     atom    9 type  1   force =     0.00000000    0.00014551    0.00015985
     atom   10 type  1   force =    -0.00000000   -0.00014551   -0.00015985

     Total force =     0.010596     Total SCF correction =     0.000015

     Writing all to output data dir Out/system.save/

     init_run     :      1.87s CPU      2.34s WALL (       1 calls)
     electrons    :     47.02s CPU     49.89s WALL (       1 calls)
     forces       :      0.81s CPU      0.85s WALL (       1 calls)

     Called by init_run:
     wfcinit      :      0.53s CPU      0.77s WALL (       1 calls)
     potinit      :      0.43s CPU      0.45s WALL (       1 calls)
     hinit0       :      0.68s CPU      0.88s WALL (       1 calls)

     Called by electrons:
     c_bands      :     42.89s CPU     45.09s WALL (      23 calls)
     sum_band     :      2.69s CPU      3.00s WALL (      23 calls)
     v_of_rho     :      0.49s CPU      0.69s WALL (      24 calls)
     mix_rho      :      0.06s CPU      0.10s WALL (      23 calls)

     Called by c_bands:
     init_us_2    :      0.38s CPU      0.39s WALL (     288 calls)
     init_us_2:cp :      0.38s CPU      0.39s WALL (     288 calls)
     cegterg      :     31.78s CPU     33.94s WALL (     138 calls)

     Called by *egterg:
     cdiaghg      :      6.57s CPU      6.80s WALL (    1726 calls)
     h_psi        :     18.38s CPU     20.37s WALL (    1732 calls)
     g_psi        :      0.17s CPU      0.17s WALL (    1588 calls)

     Called by h_psi:
     h_psi:calbec :      2.34s CPU      2.51s WALL (    1732 calls)
     vloc_psi     :     13.89s CPU     15.66s WALL (    1732 calls)
     add_vuspsi   :      2.04s CPU      2.09s WALL (    1732 calls)

     General routines
     calbec       :      2.46s CPU      2.63s WALL (    1756 calls)
     fft          :      0.58s CPU      1.00s WALL (     250 calls)
     ffts         :      0.01s CPU      0.02s WALL (      23 calls)
     fftw         :     14.23s CPU     16.06s WALL (   49848 calls)

     Parallel routines

     PWSCF        :     49.97s CPU     58.24s WALL


   This run was terminated on:  20:39:22  29Nov2022            

=------------------------------------------------------------------------------=
   JOB DONE.
=------------------------------------------------------------------------------=
